[Molden Format]
[Geometries] (XYZ)
64

Ti      -0.173467       0.045384      -0.285855
Si      -0.854412       2.497742       0.952221
N        0.353967       1.711453      -0.060044
C        1.023348      -2.276871      -0.296479
C        2.068199      -1.953607      -1.057976
C       -1.100209       0.084692      -2.124608
C       -0.257773      -0.591113      -3.220575
C       -1.478240       0.737678       1.297246
C       -2.095771       3.487040      -0.094161
C       -0.270012       3.293255       2.574446
C       -0.682268      -0.219733       1.985625
C       -2.412998       0.015973       0.502019
C       -2.262019      -1.364304       0.777073
C       -2.926792      -2.515660       0.244783
C       -1.210492      -1.506139       1.726825
C       -0.872418      -2.792832       2.258605
C        0.093870      -2.935545       3.264899
C       -1.529176      -3.938031       1.742693
C       -1.172331      -5.182245       2.277913
C       -2.534766      -3.800926       0.698436
C       -3.146332      -4.912068       0.103887
C       -4.107351      -4.775737      -0.872184
C       -4.506526      -3.509728      -1.290520
C       -3.920310      -2.397427      -0.737567
C       -0.217858      -5.303127       3.262715
C        0.420601      -4.172780       3.763875
C        1.462731       2.410302      -0.695830
C        2.569582       1.373385      -0.886351
C        0.994352       2.967299      -2.035277
C        1.966678       3.540305       0.188454
H        2.049278      -2.048510      -2.135863
H        3.014190      -1.669502      -0.617104
H        1.144231      -2.356538       0.781694
H        0.130517      -2.738577      -0.722184
H       -1.340628       1.106354      -2.458621
H       -2.059304      -0.459866      -2.098205
H       -0.174693      -1.668009      -3.046899
H       -0.741460      -0.472147      -4.195446
H        0.741348      -0.154431      -3.308723
H        0.567090       2.762231       3.015696
H        0.023747       4.326739       2.436400
H       -1.086466       3.279538       3.289172
H       -3.007322       3.656779       0.469023
H       -1.700195       4.461075      -0.361028
H       -2.353085       2.961332      -1.011364
H       -3.224143       0.478193      -0.045032
H       -2.865727      -5.911862       0.399479
H       -4.554584      -5.657128      -1.311478
H       -5.269029      -3.411200      -2.050073
H       -4.225716      -1.414741      -1.062784
H       -1.651754      -6.083797       1.927519
H        0.030765      -6.281286       3.651412
H        1.163803      -4.275210       4.541813
H        0.581127      -2.056719       3.659144
H        0.039247       0.034241       2.752763
H        1.205342       4.305883       0.289041
H        2.849674       3.993852      -0.258190
H        2.227368       3.162771       1.171519
H        0.153748       3.634454      -1.875270
H        0.688316       2.163008      -2.700697
H        1.799803       3.526001      -2.507431
H        2.791235       0.898780       0.076224
H        2.265182       0.627679      -1.631583
H        3.476923       1.855525      -1.245621
64

Ti      -0.132313       0.019169      -0.260740
Si      -0.847386       2.466704       0.983597
N        0.392315       1.722014      -0.033810
C        1.085183      -2.297461      -0.251330
C        2.056430      -1.874573      -1.051865
C       -1.047089       0.000944      -2.125067
C       -0.182194      -0.561732      -3.265232
C       -1.475147       0.695389       1.304693
C       -2.105213       3.472419      -0.034160
C       -0.286992       3.253925       2.623426
C       -0.686332      -0.271470       1.990721
C       -2.397287      -0.018758       0.485275
C       -2.254988      -1.402468       0.750877
C       -2.933060      -2.546487       0.212835
C       -1.214161      -1.557476       1.709919
C       -0.890007      -2.851648       2.238033
C        0.072709      -3.007026       3.248222
C       -1.561267      -3.988721       1.719057
C       -1.222949      -5.240493       2.255014
C       -2.564760      -3.837402       0.672695
C       -3.200860      -4.941468       0.084938
C       -4.161366      -4.790578      -0.892785
C       -4.533752      -3.517293      -1.320813
C       -3.923528      -2.412335      -0.772803
C       -0.272079      -5.374458       3.244836
C        0.381322      -4.251166       3.749038
C        1.475927       2.462366      -0.685750
C        2.622518       1.470873      -0.908533
C        0.972795       3.019927      -2.017404
C        1.959640       3.603898       0.202337
H        2.066001      -2.011612      -2.124588
H        2.971813      -1.472244      -0.629900
H        1.216673      -2.322468       0.829056
H        0.240125      -2.865189      -0.642678
H       -1.373617       1.004471      -2.417830
H       -1.954905      -0.624982      -2.096254
H       -0.025651      -1.637441      -3.150088
H       -0.693398      -0.424100      -4.223939
H        0.784099      -0.057050      -3.346931
H        0.561669       2.734029       3.063731
H       -0.011273       4.298735       2.502153
H       -1.106828       3.215607       3.339658
H       -3.018917       3.623896       0.538370
H       -1.719941       4.459093      -0.284493
H       -2.366782       2.965983      -0.963425
H       -3.198236       0.448971      -0.073617
H       -2.941167      -5.946122       0.388633
H       -4.629096      -5.665684      -1.325850
H       -5.294161      -3.405859      -2.082399
H       -4.207554      -1.423104      -1.104070
H       -1.713770      -6.136170       1.900595
H       -0.038140      -6.356689       3.635235
H        1.121815      -4.362763       4.529956
H        0.571344      -2.132861       3.644285
H        0.025266      -0.026323       2.771940
H        1.173414       4.344567       0.326837
H        2.818583       4.091763      -0.256246
H        2.252160       3.225342       1.178452
H        0.133534       3.687313      -1.839867
H        0.650675       2.212646      -2.672812
H        1.766135       3.579665      -2.510202
H        2.866688       0.980622       0.039687
H        2.343247       0.735864      -1.671256
H        3.510488       1.996150      -1.258341
64

Ti      -0.084321      -0.007764      -0.235984
Si      -0.841575       2.421465       1.023792
N        0.422232       1.718073       0.007441
C        1.141748      -2.301749      -0.182959
C        2.038322      -1.789935      -1.015540
C       -0.975157      -0.062308      -2.121615
C       -0.091038      -0.511077      -3.296465
C       -1.471725       0.642112       1.306283
C       -2.107829       3.447341       0.033480
C       -0.312133       3.187850       2.686460
C       -0.697705      -0.338335       1.989522
C       -2.379308      -0.056034       0.457997
C       -2.251160      -1.443708       0.708321
C       -2.940922      -2.574439       0.156583
C       -1.226456      -1.618971       1.680361
C       -0.924307      -2.921244       2.201730
C        0.026585      -3.097002       3.219831
C       -1.609522      -4.044873       1.671608
C       -1.296960      -5.304474       2.205294
C       -2.602534      -3.872494       0.618511
C       -3.260431      -4.962790       0.028415
C       -4.211723      -4.791195      -0.954843
C       -4.551493      -3.510441      -1.388070
C       -3.920176      -2.418769      -0.837010
C       -0.358137      -5.458232       3.203738
C        0.309422      -4.348106       3.718601
C        1.479673       2.495225      -0.643070
C        2.659797       1.547071      -0.889029
C        0.953863       3.056311      -1.966372
C        1.937883       3.641928       0.255163
H        2.036719      -1.951818      -2.085085
H        2.931595      -1.312792      -0.620884
H        1.301786      -2.300902       0.894332
H        0.337319      -2.941348      -0.546880
H       -1.385957       0.918300      -2.376910
H       -1.827084      -0.763371      -2.097458
H        0.124858      -1.580995      -3.246541
H       -0.619418      -0.346647      -4.241378
H        0.845509       0.048922      -3.356750
H        0.544092       2.677508       3.123858
H       -0.055898       4.240220       2.587368
H       -1.135567       3.119988       3.396494
H       -3.024348       3.573430       0.607849
H       -1.731731       4.444861      -0.187172
H       -2.363668       2.966802      -0.911117
H       -3.164245       0.422924      -0.114039
H       -3.026580      -5.972383       0.336120
H       -4.697999      -5.655620      -1.388583
H       -5.303748      -3.381978      -2.154834
H       -4.178839      -1.423441      -1.171035
H       -1.798995      -6.190118       1.841835
H       -0.145031      -6.445367       3.593099
H        1.040653      -4.474611       4.505759
H        0.535982      -2.232733       3.624566
H       -0.000071      -0.107707       2.788117
H        1.128936       4.353638       0.403047
H        2.772551       4.165553      -0.208155
H        2.257063       3.259887       1.221958
H        0.119139       3.725798      -1.774533
H        0.616452       2.248643      -2.613709
H        1.739137       3.614209      -2.473472
H        2.911706       1.035114       0.045333
H        2.410361       0.830715      -1.677788
H        3.533296       2.111919      -1.212423
64

Ti      -0.028611      -0.043821      -0.211724
Si      -0.816373       2.366025       1.069927
N        0.467713       1.697037       0.055730
C        1.199011      -2.312220      -0.106975
C        2.018541      -1.737160      -0.978023
C       -0.894375      -0.113456      -2.113214
C       -0.002580      -0.459167      -3.316620
C       -1.453670       0.582491       1.309812
C       -2.081443       3.416231       0.100853
C       -0.318669       3.105095       2.756800
C       -0.697929      -0.417024       1.986801
C       -2.351936      -0.093196       0.434606
C       -2.242795      -1.485510       0.665134
C       -2.947039      -2.598514       0.095470
C       -1.233587      -1.687788       1.647740
C       -0.958307      -3.000474       2.157780
C       -0.020658      -3.203213       3.183173
C       -1.660264      -4.106267       1.612058
C       -1.377171      -5.376064       2.138185
C       -2.641436      -3.905992       0.552890
C       -3.321887      -4.977792      -0.045817
C       -4.262582      -4.779134      -1.034080
C       -4.567534      -3.488954      -1.465402
C       -3.914076      -2.415041      -0.905218
C       -0.451413      -5.556107       3.144345
C        0.232749      -4.463436       3.674571
C        1.514292       2.500276      -0.578618
C        2.723209       1.585693      -0.821428
C        0.990213       3.061124      -1.904193
C        1.939342       3.652969       0.330710
H        1.974515      -1.921280      -2.043776
H        2.904497      -1.214461      -0.625305
H        1.404970      -2.293749       0.962654
H        0.420402      -2.999797      -0.436608
H       -1.376940       0.843305      -2.333244
H       -1.694368      -0.874345      -2.096540
H        0.251973      -1.521217      -3.334075
H       -0.544080      -0.257350      -4.246484
H        0.913378       0.135491      -3.349411
H        0.542358       2.600944       3.192247
H       -0.079294       4.163611       2.682690
H       -1.146995       3.008432       3.457704
H       -3.003070       3.521030       0.671258
H       -1.708951       4.421742      -0.087936
H       -2.328219       2.962974      -0.859564
H       -3.119575       0.402157      -0.146805
H       -3.115557      -5.993659       0.260226
H       -4.767816      -5.629429      -1.473674
H       -5.310818      -3.338578      -2.236736
H       -4.145542      -1.412193      -1.236819
H       -1.892581      -6.248560       1.762180
H       -0.261863      -6.549932       3.528261
H        0.953780      -4.610072       4.467430
H        0.501257      -2.352185       3.600254
H       -0.012352      -0.206637       2.801563
H        1.109145       4.337718       0.489180
H        2.755388       4.207483      -0.129406
H        2.273088       3.271490       1.293078
H        0.156131       3.732424      -1.714424
H        0.650201       2.251663      -2.547948
H        1.776181       3.616629      -2.412423
H        2.954038       1.043566       0.101192
H        2.516804       0.897239      -1.645261
H        3.594731       2.180795      -1.091154
64

Ti       0.036183      -0.087081      -0.191919
Si      -0.763558       2.305420       1.116606
N        0.535350       1.658643       0.106269
C        1.267967      -2.329222      -0.039412
C        2.008486      -1.720354      -0.960070
C       -0.810076      -0.153701      -2.102776
C        0.076952      -0.411084      -3.331589
C       -1.413655       0.522203       1.316357
C       -2.016445       3.381203       0.157435
C       -0.296967       3.016408       2.825623
C       -0.676230      -0.499320       1.982187
C       -2.309984      -0.126839       0.420033
C       -2.221610      -1.523826       0.627087
C       -2.942631      -2.616165       0.038363
C       -1.223871      -1.757098       1.614616
C       -0.975381      -3.081466       2.108044
C       -0.048340      -3.315125       3.136541
C       -1.695832      -4.166614       1.544981
C       -1.440600      -5.448013       2.057165
C       -2.667797      -3.934352       0.483905
C       -3.370526      -4.984722      -0.127100
C       -4.302742      -4.755316      -1.116717
C       -4.575485      -3.454679      -1.538186
C       -3.900041      -2.401257      -0.965243
C       -0.524880      -5.658342       3.066547
C        0.177193      -4.585788       3.614244
C        1.593184       2.472905      -0.493141
C        2.828321       1.579174      -0.685706
C        1.109549       3.019215      -1.840966
C        1.967433       3.640269       0.421390
H        1.901250      -1.930332      -2.017426
H        2.898551      -1.168955      -0.666727
H        1.533226      -2.290161       1.016893
H        0.501780      -3.050382      -0.321572
H       -1.349606       0.781796      -2.287208
H       -1.566752      -0.958579      -2.093917
H        0.352028      -1.464642      -3.414318
H       -0.477366      -0.166000      -4.243041
H        0.981933       0.200341      -3.338818
H        0.565180       2.514935       3.262138
H       -0.069953       4.079118       2.775166
H       -1.131971       2.895942       3.514796
H       -2.945273       3.473681       0.718125
H       -1.640650       4.390411      -0.003270
H       -2.251514       2.951514      -0.816764
H       -3.062484       0.388028      -0.164076
H       -3.189573      -6.007612       0.170945
H       -4.826402      -5.589447      -1.565375
H       -5.311623      -3.279635      -2.311067
H       -4.106266      -1.390235      -1.288714
H       -1.970460      -6.305468       1.667087
H       -0.357354      -6.660069       3.439690
H        0.890227      -4.755834       4.409519
H        0.487074      -2.479426       3.567412
H        0.001720      -0.312698       2.809139
H        1.115605       4.302389       0.561524
H        2.776433       4.216334      -0.024330
H        2.292537       3.271344       1.391676
H        0.266750       3.688693      -1.684122
H        0.792214       2.201144      -2.485393
H        1.908522       3.572943      -2.330256
H        3.000707       1.004782       0.230137
H        2.689838       0.921276      -1.546635
H        3.709168       2.192527      -0.870392
64

Ti       0.103086      -0.130244      -0.178504
Si      -0.691455       2.246191       1.162038
N        0.617844       1.610476       0.157797
C        1.350358      -2.342268       0.008275
C        2.011548      -1.724106      -0.969148
C       -0.730390      -0.181824      -2.093388
C        0.140193      -0.362377      -3.347316
C       -1.358336       0.466667       1.326183
C       -1.923024       3.346257       0.200947
C       -0.255239       2.932627       2.889520
C       -0.636398      -0.577359       1.975484
C       -2.258776      -0.153946       0.414593
C       -2.189532      -1.555259       0.594892
C       -2.927930      -2.625677      -0.012509
C       -1.198103      -1.820721       1.581028
C       -0.971930      -3.157209       2.052258
C       -0.050428      -3.423240       3.077925
C       -1.710671      -4.220653       1.471498
C       -1.477509      -5.514305       1.963036
C       -2.678302      -3.954952       0.414289
C       -3.402006      -4.982781      -0.210413
C       -4.329822      -4.721531      -1.196299
C       -4.576149      -3.410267      -1.600737
C       -3.880133      -2.378273      -1.013523
C       -0.566637      -5.756463       2.969594
C        0.152838      -4.705001       3.535383
C        1.709249       2.419500      -0.385713
C        2.966073       1.536371      -0.463647
C        1.316943       2.924607      -1.778922
C        2.006689       3.618374       0.517004
H        1.832906      -1.963938      -2.011295
H        2.909247      -1.152354      -0.748203
H        1.681425      -2.276881       1.044950
H        0.589866      -3.089046      -0.215257
H       -1.313335       0.736562      -2.240137
H       -1.453345      -1.017718      -2.092165
H        0.427673      -1.405977      -3.489915
H       -0.431320      -0.077189      -4.235945
H        1.038040       0.258408      -3.337647
H        0.604104       2.430800       3.331220
H       -0.035456       3.997658       2.858586
H       -1.098907       2.795634       3.564951
H       -2.861331       3.433788       0.746340
H       -1.539371       4.356022       0.064192
H       -2.142510       2.935294      -0.785083
H       -3.000244       0.381317      -0.165056
H       -3.241888      -6.012893       0.073981
H       -4.870534      -5.538865      -1.655400
H       -5.308375      -3.209843      -2.371121
H       -4.065703      -1.359052      -1.323669
H       -2.021246      -6.356132       1.558389
H       -0.416424      -6.766801       3.326450
H        0.861840      -4.899838       4.328495
H        0.498250      -2.603658       3.522713
H        0.038451      -0.415965       2.810253
H        1.133070       4.262264       0.595759
H        2.823638       4.203575       0.098456
H        2.290227       3.282503       1.511926
H        0.456785       3.586337      -1.699032
H        1.055759       2.085577      -2.421420
H        2.141806       3.476256      -2.225670
H        3.044398       0.943597       0.453256
H        2.927632       0.895037      -1.345904
H        3.856791       2.158121      -0.540790
64

Ti       0.154585      -0.162309      -0.164765
Si      -0.618463       2.198506       1.211399
N        0.697465       1.564093       0.215135
C        1.431875      -2.337753       0.035217
C        2.015325      -1.727515      -0.999602
C       -0.666480      -0.197204      -2.081899
C        0.175448      -0.304346      -3.362948
C       -1.306756       0.425350       1.345013
C       -1.822778       3.320770       0.239941
C       -0.209196       2.866144       2.952702
C       -0.596960      -0.640928       1.972495
C       -2.214394      -0.165666       0.421323
C       -2.161679      -1.570950       0.571349
C       -2.916878      -2.618637      -0.054917
C       -1.172559      -1.869093       1.550874
C       -0.962826      -3.218114       1.993637
C       -0.041456      -3.517484       3.010291
C       -1.718454      -4.259281       1.394289
C       -1.500426      -5.565810       1.857947
C       -2.686692      -3.959194       0.346800
C       -3.430213      -4.963739      -0.292226
C       -4.357584      -4.670017      -1.269440
C       -4.583003      -3.348156      -1.650673
C       -3.867912      -2.338177      -1.048219
C       -0.589227      -5.840783       2.855718
C        0.146169      -4.810963       3.440535
C        1.838119       2.350215      -0.257176
C        3.098912       1.473172      -0.153348
C        1.589140       2.774996      -1.708703
C        2.039876       3.602253       0.598927
H        1.771343      -2.002203      -2.020375
H        2.915604      -1.135912      -0.855445
H        1.827246      -2.239237       1.047008
H        0.678985      -3.108005      -0.124015
H       -1.279688       0.709722      -2.186110
H       -1.365399      -1.053396      -2.089062
H        0.478708      -1.334410      -3.559858
H       -0.422662       0.009888      -4.223670
H        1.062035       0.330683      -3.347566
H        0.643454       2.360527       3.402985
H        0.009869       3.931680       2.935348
H       -1.062862       2.722002       3.614025
H       -2.772184       3.407545       0.765809
H       -1.429528       4.329463       0.124698
H       -2.023033       2.924967      -0.756586
H       -2.948805       0.389977      -0.147856
H       -3.286716      -6.001130      -0.026233
H       -4.914105      -5.470152      -1.739752
H       -5.314281      -3.122032      -2.414814
H       -4.037357      -1.310801      -1.340409
H       -2.056383      -6.391816       1.437704
H       -0.450920      -6.860346       3.190547
H        0.855249      -5.031544       4.226768
H        0.519755      -2.714479       3.469205
H        0.077639      -0.505838       2.812087
H        1.152297       4.231134       0.569263
H        2.879233       4.180300       0.216192
H        2.246682       3.327819       1.630674
H        0.714347       3.421581      -1.753585
H        1.412628       1.898885      -2.330081
H        2.447886       3.320709      -2.094851
H        3.058639       0.896166       0.775508
H        3.181776       0.813560      -1.017758
H        3.989835       2.098471      -0.124710
64

Ti       0.174455      -0.175684      -0.136565
Si      -0.561627       2.172323       1.271600
N        0.757118       1.528455       0.285211
C        1.488351      -2.308355       0.059863
C        1.998167      -1.718055      -1.028644
C       -0.619254      -0.205502      -2.059910
C        0.184221      -0.237002      -3.368069
C       -1.279720       0.408788       1.380395
C       -1.734781       3.316100       0.285848
C       -0.172747       2.827237       3.021983
C       -0.582395      -0.679735       1.984369
C       -2.192888      -0.151215       0.443098
C       -2.156784      -1.560055       0.561169
C       -2.927319      -2.583822      -0.085830
C       -1.171002      -1.891633       1.533548
C       -0.975988      -3.253202       1.944225
C       -0.053896      -3.586943       2.949590
C       -1.746642      -4.271023       1.324095
C       -1.541524      -5.590551       1.755756
C       -2.715562      -3.935491       0.288001
C       -3.477748      -4.915576      -0.366667
C       -4.404019      -4.588545      -1.334413
C       -4.609165      -3.256416      -1.690040
C       -3.876425      -2.269518      -1.070682
C       -0.629640      -5.899329       2.742995
C        0.120102      -4.892226       3.348742
C        1.949700       2.275020      -0.118076
C        3.182133       1.405431       0.195323
C        1.864717       2.585770      -1.616151
C        2.070107       3.591806       0.651994
H        1.706708      -2.036664      -2.024210
H        2.891082      -1.101741      -0.957688
H        1.939620      -2.167877       1.043640
H        0.751907      -3.104564      -0.034290
H       -1.247730       0.698105      -2.115059
H       -1.305515      -1.071237      -2.078004
H        0.509735      -1.248818      -3.616649
H       -0.448184       0.095593      -4.196720
H        1.052865       0.420718      -3.352203
H        0.669362       2.313429       3.482672
H        0.053872       3.891335       3.011973
H       -1.036901       2.686750       3.670430
H       -2.695254       3.405628       0.790699
H       -1.330562       4.322440       0.190296
H       -1.915116       2.933360      -0.719828
H       -2.920818       0.424838      -0.114044
H       -3.350393      -5.959985      -0.120820
H       -4.975275      -5.370644      -1.817170
H       -5.338767      -3.004111      -2.447570
H       -4.030522      -1.234209      -1.343064
H       -2.107907      -6.400118       1.317971
H       -0.501614      -6.928171       3.052688
H        0.829766      -5.139428       4.126453
H        0.519044      -2.801352       3.423644
H        0.090854      -0.572217       2.828934
H        1.187666       4.208026       0.491806
H        2.940149       4.145082       0.302588
H        2.183842       3.401619       1.716370
H        0.993446       3.211003      -1.807220
H        1.772307       1.662646      -2.186330
H        2.756193       3.117943      -1.942609
H        3.021905       0.885164       1.143624
H        3.369329       0.690046      -0.605285
H        4.067499       2.030767       0.296847
64

Ti       0.171724      -0.181524      -0.089427
Si      -0.511836       2.161315       1.340088
N        0.804229       1.495344       0.365267
C        1.515004      -2.269829       0.104178
C        1.955629      -1.713953      -1.035211
C       -0.572378      -0.220908      -2.026148
C        0.191968      -0.185643      -3.355503
C       -1.271851       0.412768       1.430933
C       -1.649256       3.328912       0.339315
C       -0.134526       2.807871       3.095576
C       -0.593025      -0.698473       2.015372
C       -2.186234      -0.114495       0.476190
C       -2.171754      -1.526404       0.564861
C       -2.956964      -2.524442      -0.104548
C       -1.195671      -1.892502       1.534703
C       -1.021127      -3.265617       1.915858
C       -0.103990      -3.634448       2.913626
C       -1.806042      -4.258274       1.273179
C       -1.619798      -5.589793       1.675597
C       -2.769140      -3.886414       0.244063
C       -3.548867      -4.840383      -0.428126
C       -4.467745      -4.479178      -1.390863
C       -4.647346      -3.137585      -1.723455
C       -3.897845      -2.175404      -1.085418
C       -0.713385      -5.933074       2.656539
C        0.050571      -4.950511       3.284381
C        2.041173       2.192612       0.013075
C        3.221466       1.330178       0.501730
C        2.092097       2.388242      -1.505757
C        2.123794       3.564166       0.686559
H        1.633095      -2.088730      -2.001159
H        2.833603      -1.071379      -1.035385
H        2.013458      -2.077171       1.056658
H        0.803186      -3.092941       0.077405
H       -1.197445       0.690363      -2.029180
H       -1.262009      -1.082748      -2.057822
H        0.534656      -1.179107      -3.650371
H       -0.471220       0.162349      -4.153226
H        1.044815       0.491366      -3.337442
H        0.692755       2.279948       3.567013
H        0.109738       3.868120       3.088025
H       -1.009067       2.682366       3.733084
H       -2.618903       3.427594       0.824611
H       -1.229942       4.330443       0.260332
H       -1.813332       2.957415      -0.673596
H       -2.903850       0.482900      -0.072199
H       -3.441595      -5.891098      -0.200385
H       -5.052928      -5.241911      -1.887618
H       -5.370264      -2.858561      -2.478021
H       -4.032569      -1.132790      -1.340055
H       -2.196348      -6.381561       1.219146
H       -0.600263      -6.970274       2.943362
H        0.756243      -5.224927       4.056533
H        0.480743      -2.867639       3.403549
H        0.075042      -0.619543       2.867033
H        1.263546       4.172687       0.415232
H        3.024454       4.081128       0.359960
H        2.159203       3.456981       1.767672
H        1.240946       2.991799      -1.820119
H        2.054486       1.423815      -2.011722
H        3.009133       2.901113      -1.789797
H        2.966671       0.890152       1.468766
H        3.461566       0.545148      -0.214930
H        4.109332       1.946466       0.631610
64

Ti       0.176831      -0.208042      -0.034206
Si      -0.433436       2.139197       1.408716
N        0.869749       1.438360       0.442350
C        1.534980      -2.261712       0.173515
C        1.904824      -1.760682      -1.016780
C       -0.512737      -0.256305      -1.987676
C        0.226866      -0.186139      -3.327799
C       -1.249579       0.414225       1.488451
C       -1.530060       3.337739       0.398141
C       -0.053035       2.776377       3.166491
C       -0.600559      -0.722201       2.058721
C       -2.163936      -0.075879       0.514025
C       -2.182500      -1.490169       0.577978
C       -2.986055      -2.458033      -0.113817
C       -1.223819      -1.894840       1.549978
C       -1.083055      -3.278361       1.907467
C       -0.180905      -3.685414       2.904225
C       -1.885300      -4.241395       1.241535
C       -1.732120      -5.583676       1.621526
C       -2.832492      -3.829743       0.212733
C       -3.630199      -4.753541      -0.480006
C       -4.533743      -4.354586      -1.442462
C       -4.679165      -3.003886      -1.753703
C       -3.911304      -2.070486      -1.094971
C       -0.841423      -5.964498       2.603114
C       -0.059458      -5.010944       3.253033
C        2.140936       2.084151       0.117785
C        3.268181       1.219894       0.716092
C        2.275187       2.192994      -1.404682
C        2.229169       3.489405       0.717025
H        1.549857      -2.200372      -1.943077
H        2.766465      -1.100614      -1.097351
H        2.079271      -2.008741       1.086726
H        0.847873      -3.104270       0.224745
H       -1.114561       0.673777      -1.948101
H       -1.225082      -1.098330      -2.034202
H        0.568485      -1.170678      -3.652336
H       -0.450609       0.179957      -4.105283
H        1.077934       0.492340      -3.305774
H        0.754229       2.225113       3.645873
H        0.221995       3.829096       3.159007
H       -0.936302       2.677929       3.796601
H       -2.505047       3.454303       0.868797
H       -1.088476       4.330574       0.332627
H       -1.686196       2.977378      -0.620245
H       -2.864595       0.546718      -0.028824
H       -3.549454      -5.810094      -0.269090