[Molden Format]
[Geometries] (XYZ)
64

Ti      -0.173467       0.045384      -0.285855
Si      -0.854412       2.497742       0.952221
N        0.353967       1.711453      -0.060044
C        1.023348      -2.276871      -0.296479
C        2.068199      -1.953607      -1.057976
C       -1.100209       0.084692      -2.124608
C       -0.257773      -0.591113      -3.220575
C       -1.478240       0.737678       1.297246
C       -2.095771       3.487040      -0.094161
C       -0.270012       3.293255       2.574446
C       -0.682268      -0.219733       1.985625
C       -2.412998       0.015973       0.502019
C       -2.262019      -1.364304       0.777073
C       -2.926792      -2.515660       0.244783
C       -1.210492      -1.506139       1.726825
C       -0.872418      -2.792832       2.258605
C        0.093870      -2.935545       3.264899
C       -1.529176      -3.938031       1.742693
C       -1.172331      -5.182245       2.277913
C       -2.534766      -3.800926       0.698436
C       -3.146332      -4.912068       0.103887
C       -4.107351      -4.775737      -0.872184
C       -4.506526      -3.509728      -1.290520
C       -3.920310      -2.397427      -0.737567
C       -0.217858      -5.303127       3.262715
C        0.420601      -4.172780       3.763875
C        1.462731       2.410302      -0.695830
C        2.569582       1.373385      -0.886351
C        0.994352       2.967299      -2.035277
C        1.966678       3.540305       0.188454
H        2.049278      -2.048510      -2.135863
H        3.014190      -1.669502      -0.617104
H        1.144231      -2.356538       0.781694
H        0.130517      -2.738577      -0.722184
H       -1.340628       1.106354      -2.458621
H       -2.059304      -0.459866      -2.098205
H       -0.174693      -1.668009      -3.046899
H       -0.741460      -0.472147      -4.195446
H        0.741348      -0.154431      -3.308723
H        0.567090       2.762231       3.015696
H        0.023747       4.326739       2.436400
H       -1.086466       3.279538       3.289172
H       -3.007322       3.656779       0.469023
H       -1.700195       4.461075      -0.361028
H       -2.353085       2.961332      -1.011364
H       -3.224143       0.478193      -0.045032
H       -2.865727      -5.911862       0.399479
H       -4.554584      -5.657128      -1.311478
H       -5.269029      -3.411200      -2.050073
H       -4.225716      -1.414741      -1.062784
H       -1.651754      -6.083797       1.927519
H        0.030765      -6.281286       3.651412
H        1.163803      -4.275210       4.541813
H        0.581127      -2.056719       3.659144
H        0.039247       0.034241       2.752763
H        1.205342       4.305883       0.289041
H        2.849674       3.993852      -0.258190
H        2.227368       3.162771       1.171519
H        0.153748       3.634454      -1.875270
H        0.688316       2.163008      -2.700697
H        1.799803       3.526001      -2.507431
H        2.791235       0.898780       0.076224
H        2.265182       0.627679      -1.631583
H        3.476923       1.855525      -1.245621
64

Ti      -0.130044       0.021361      -0.260758
Si      -0.843252       2.465431       0.981526
N        0.386084       1.714309      -0.031089
C        1.089157      -2.294041      -0.254660
C        2.053654      -1.872917      -1.051697
C       -1.045152       0.003212      -2.124100
C       -0.179011      -0.559985      -3.263414
C       -1.471273       0.697137       1.304072
C       -2.099304       3.468124      -0.038086
C       -0.280963       3.252211       2.618839
C       -0.684396      -0.267357       1.989344
C       -2.393118      -0.014333       0.486108
C       -2.251715      -1.397139       0.750787
C       -2.928399      -2.539349       0.212956
C       -1.211258      -1.552634       1.709224
C       -0.887245      -2.845232       2.236420
C        0.074104      -3.001976       3.245485
C       -1.557314      -3.981025       1.716740
C       -1.218174      -5.230642       2.251371
C       -2.559646      -3.829518       0.671297
C       -3.193969      -4.931359       0.082704
C       -4.152423      -4.780621      -0.893555
C       -4.525213      -3.509091      -1.319883
C       -3.917443      -2.405826      -0.771915
C       -0.268997      -5.365101       3.239471
C        0.382663      -4.243965       3.744254
C        1.462486       2.450901      -0.680044
C        2.606296       1.458255      -0.902033
C        0.957304       3.005826      -2.009671
C        1.947135       3.592022       0.205259
H        2.065265      -2.011026      -2.123633
H        2.968404      -1.469515      -0.629472
H        1.220209      -2.318179       0.826136
H        0.244734      -2.863151      -0.645572
H       -1.371753       1.005272      -2.416119
H       -1.952872      -0.623586      -2.094399
H       -0.022783      -1.635723      -3.147548
H       -0.687870      -0.424282      -4.223002
H        0.787496      -0.054833      -3.344712
H        0.564913       2.732234       3.056880
H       -0.005128       4.292614       2.494122
H       -1.098425       3.215625       3.331862
H       -3.008625       3.620555       0.533807
H       -1.712949       4.450301      -0.289290
H       -2.359764       2.958740      -0.963655
H       -3.193397       0.454214      -0.071654
H       -2.934470      -5.934687       0.384643
H       -4.618791      -5.654672      -1.326960
H       -5.284580      -3.398441      -2.080422
H       -4.202361      -1.418596      -1.102041
H       -1.707407      -6.125059       1.897265
H       -0.035210      -6.346398       3.628529
H        1.121746      -4.356313       4.524353
H        0.571639      -2.129908       3.642753
H        0.026496      -0.021718       2.769791
H        1.163191       4.331207       0.329397
H        2.805217       4.078606      -0.254047
H        2.239505       3.214982       1.180042
H        0.119753       3.672243      -1.830641
H        0.633655       2.197817      -2.662450
H        1.748601       3.564578      -2.504531
H        2.850660       0.969674       0.047706
H        2.325698       0.722475      -1.664491
H        3.493412       1.982399      -1.252503
64

Ti      -0.082302      -0.006165      -0.236199
Si      -0.838920       2.420227       1.021941
N        0.416329       1.712841       0.010073
C        1.145951      -2.297532      -0.187074
C        2.034262      -1.787638      -1.014082
C       -0.973452      -0.061118      -2.121396
C       -0.087788      -0.509779      -3.295643
C       -1.468824       0.642969       1.305441
C       -2.104257       3.443265       0.030330
C       -0.308441       3.186535       2.682715
C       -0.696661      -0.334867       1.987891
C       -2.375617      -0.052648       0.458241
C       -2.248242      -1.439442       0.707723
C       -2.936700      -2.568591       0.156327
C       -1.224180      -1.615061       1.679255
C       -0.922212      -2.915895       2.200025
C        0.027088      -3.093081       3.217174
C       -1.606458      -4.038216       1.669472
C       -1.293569      -5.295584       2.202382
C       -2.598184      -3.865726       0.617209
C       -3.254752      -4.953881       0.026817
C       -4.204001      -4.782591      -0.954798
C       -4.543800      -3.503666      -1.386880
C       -3.914528      -2.413660      -0.836414
C       -0.356713      -5.449720       3.199275
C        0.309359      -4.341862       3.714359
C        1.466470       2.486985      -0.637938
C        2.644773       1.537806      -0.884060
C        0.938058       3.045876      -1.959522
C        1.926204       3.633836       0.257699
H        2.035211      -1.950489      -2.082846
H        2.926812      -1.308875      -0.618393
H        1.305486      -2.296141       0.890749
H        0.342825      -2.938867      -0.551161
H       -1.384495       0.917205      -2.376167
H       -1.824849      -0.763595      -2.096346
H        0.128491      -1.579620      -3.245492
H       -0.613946      -0.347248      -4.241362
H        0.848535       0.051303      -3.355624
H        0.545289       2.676673       3.117780
H       -0.052726       4.234781       2.580421
H       -1.129499       3.119774       3.389534
H       -3.016540       3.569368       0.604003
H       -1.727720       4.436792      -0.190584
H       -2.358505       2.960184      -0.910935
H       -3.159827       0.426997      -0.112861
H       -3.021483      -5.961946       0.333214
H       -4.689253      -5.645891      -1.388329
H       -5.294985      -3.376006      -2.152443
H       -4.173835      -1.420350      -1.169627
H       -1.794236      -6.179839       1.839562
H       -0.144238      -6.435653       3.587715
H        1.038901      -4.469026       4.500760
H        0.535598      -2.230915       3.622992
H        0.000135      -0.103532       2.785859
H        1.119673       4.344134       0.405792
H        2.759658       4.156258      -0.206700
H        2.245839       3.253276       1.223075
H        0.105239       3.714589      -1.766001
H        0.598723       2.237462      -2.603996
H        1.721073       3.602660      -2.468952
H        2.897685       1.027701       0.051818
H        2.393844       0.820596      -1.672318
H        3.516983       2.101897      -1.208736
64

Ti      -0.027027      -0.042771      -0.211821
Si      -0.815260       2.364580       1.068707
N        0.461882       1.693561       0.058468
C        1.202148      -2.307665      -0.110897
C        2.013764      -1.733899      -0.975354
C       -0.892728      -0.113084      -2.113033
C        0.000917      -0.458088      -3.315936
C       -1.451987       0.582465       1.308923
C       -2.080153       3.412397       0.099105
C       -0.317205       3.103477       2.754360
C       -0.698080      -0.414581       1.985133
C       -2.349000      -0.090673       0.434388
C       -2.240659      -1.482232       0.664084
C       -2.943765      -2.593805       0.094718
C       -1.232403      -1.684910       1.646323
C       -0.957551      -2.996353       2.155941
C       -0.021784      -3.200673       3.180602
C       -1.658786      -4.100747       1.609883
C       -1.375914      -5.368331       2.135652
C       -2.638477      -3.900280       0.551443
C       -3.318072      -4.969933      -0.047210
C       -4.256709      -4.771543      -1.033758
C       -4.561209      -3.483173      -1.464365
C       -3.909333      -2.411004      -0.905104
C       -0.452431      -5.548760       3.140493
C        0.230518      -4.458493       3.670774
C        1.501141       2.494321      -0.574176
C        2.708688       1.578522      -0.818421
C        0.973810       3.053631      -1.898129
C        1.928853       3.647402       0.332803
H        1.971726      -1.918524      -2.040637
H        2.899227      -1.209617      -0.621047
H        1.407885      -2.289357       0.959321
H        0.424922      -2.996752      -0.441465
H       -1.375943       0.841309      -2.333044
H       -1.691715      -0.875830      -2.095495
H        0.256301      -1.519888      -3.333688
H       -0.538347      -0.257954      -4.246589
H        0.916307       0.137973      -3.348194
H        0.541631       2.600183       3.187317
H       -0.078856       4.158180       2.677489
H       -1.143129       3.007281       3.452138
H       -2.997694       3.516359       0.668839
H       -1.707750       4.414385      -0.089250
H       -2.325091       2.957183      -0.858410
H       -3.115739       0.405388      -0.146323
H       -3.112766      -5.984130       0.257875
H       -4.761273      -5.620571      -1.472781
H       -5.303384      -3.333463      -2.234428
H       -4.141105      -1.410103      -1.236125
H       -1.890186      -6.239315       1.760435
H       -0.264018      -6.541187       3.523815
H        0.949565      -4.605796       4.462992
H        0.499417      -2.351784       3.598751
H       -0.013519      -0.203538       2.799473
H        1.101412       4.331043       0.492419
H        2.743389       4.200661      -0.128930
H        2.263824       3.267149       1.293524
H        0.142068       3.724699      -1.706248
H        0.630968       2.243549      -2.538773
H        1.757480       3.607607      -2.409156
H        2.940979       1.037999       0.105610
H        2.500282       0.889521      -1.641786
H        3.578832       2.172949      -1.089870
64

Ti       0.037798      -0.086547      -0.191823
Si      -0.762941       2.303621       1.116005
N        0.529931       1.655725       0.109026
C        1.270201      -2.325003      -0.042689
C        2.003775      -1.716575      -0.956921
C       -0.808249      -0.153685      -2.102215
C        0.080728      -0.410003      -3.330560
C       -1.412343       0.521479       1.315608
C       -2.016059       3.377471       0.156910
C       -0.296321       3.014094       2.824238
C       -0.676704      -0.497825       1.980639
C       -2.307198      -0.124907       0.419831
C       -2.219692      -1.521227       0.626021
C       -2.939727      -2.612197       0.037517
C       -1.223053      -1.754997       1.613200
C       -0.975239      -3.078256       2.106271
C       -0.050306      -3.313619       3.134174
C       -1.695154      -4.161905       1.542898
C       -1.440488      -5.441100       2.054966
C       -2.665498      -3.929358       0.482492
C       -3.367623      -4.977519      -0.128347
C       -4.297762      -4.748276      -1.116203
C       -4.569783      -3.449417      -1.537121
C       -3.895653      -2.397852      -0.965209
C       -0.527275      -5.651860       3.063151
C        0.173766      -4.581834       3.610850
C        1.580684       2.467338      -0.489602
C        2.814344       1.571495      -0.684424
C        1.093439       3.012432      -1.836078
C        1.959092       3.635213       0.422604
H        1.897327      -1.926557      -2.014137
H        2.893784      -1.163699      -0.662046
H        1.535753      -2.286530       1.014229
H        0.505086      -3.047367      -0.326061
H       -1.348766       0.779742      -2.286938
H       -1.563650      -0.960597      -2.092486
H        0.356448      -1.463172      -3.414246
H       -0.471170      -0.165902      -4.242769
H        0.985195       0.202557      -3.336796
H        0.563877       2.513666       3.258023
H       -0.070653       4.073187       2.771399
H       -1.128830       2.893628       3.510407
H       -2.940790       3.468761       0.717096
H       -1.640540       4.383324      -0.003031
H       -2.249392       2.946178      -0.814598
H       -3.058674       0.390730      -0.163625
H       -3.187950      -5.998634       0.168845
H       -4.820938      -5.581001      -1.564152
H       -5.304791      -3.274904      -2.308673
H       -4.101969      -1.388720      -1.288179
H       -1.969353      -6.296962       1.665746
H       -0.361224      -6.652075       3.435871
H        0.884600      -4.752584       4.405554
H        0.484434      -2.480122       3.566145
H        0.000170      -0.310685       2.807236
H        1.110561       4.296893       0.564641
H        2.766656       4.209536      -0.025337
H        2.285922       3.267343       1.391078
H        0.253448       3.682469      -1.676883
H        0.772206       2.193748      -2.477176
H        1.890393       3.563897      -2.328692
H        2.987635       0.998105       0.232746
H        2.673432       0.913622      -1.545285
H        3.694385       2.183669      -0.870628
64

Ti       0.106036      -0.130099      -0.178554
Si      -0.690221       2.243827       1.161675
N        0.613453       1.607180       0.160184
C        1.353307      -2.338583       0.005941
C        2.008888      -1.719728      -0.966096
C       -0.727460      -0.181203      -2.092537
C        0.145568      -0.360318      -3.345546
C       -1.356045       0.465055       1.325318
C       -1.922166       3.342188       0.200879
C       -0.254374       2.929404       2.888661
C       -0.635647      -0.576846       1.973846
C       -2.254911      -0.153008       0.414382
C       -2.186295      -1.553667       0.593806
C       -2.923594      -2.622876      -0.013433
C       -1.195935      -1.819494       1.579563
C       -0.970367      -3.154889       2.050489
C       -0.051076      -3.422467       3.075631
C       -1.708482      -4.216914       1.469448
C       -1.475804      -5.508296       1.961055
C       -2.674453      -3.951085       0.412810
C       -3.397372      -4.976799      -0.211800
C       -4.323084      -4.715788      -1.195971
C       -4.568835      -3.406332      -1.599870
C       -3.874302      -2.376143      -1.013619
C       -0.567536      -5.750719       2.966462
C        0.150798      -4.701707       3.532205
C        1.698236       2.412395      -0.383633
C        2.952977       1.525341      -0.463964
C        1.302040       2.915459      -1.776343
C        2.001714       3.612266       0.516117
H        1.829604      -1.958837      -2.008346
H        2.907094      -1.146596      -0.744024
H        1.685198      -2.274123       1.043337
H        0.593333      -3.086186      -0.218835
H       -1.311897       0.735323      -2.239767
H       -1.448807      -1.019335      -2.090617
H        0.433229      -1.403378      -3.489766
H       -0.422821      -0.075051      -4.235090
H        1.043223       0.261152      -3.333792
H        0.603242       2.428829       3.327487
H       -0.036295       3.990969       2.855674
H       -1.095490       2.791917       3.561117
H       -2.856339       3.428491       0.745952
H       -1.538811       4.348585       0.064879
H       -2.140095       2.929662      -0.782521
H       -2.995398       0.382924      -0.164551
H       -3.238424      -6.005045       0.071680
H       -4.863168      -5.531722      -1.654410
H       -5.299897      -3.206502      -2.368950
H       -4.060058      -1.358806      -1.323280
H       -2.018469      -6.348600       1.557338
H       -0.418761      -6.759472       3.322998
H        0.857499      -4.897116       4.324794
H        0.496717      -2.605035       3.521512
H        0.038158      -0.414926       2.808208
H        1.132012       4.256829       0.596983
H        2.817771       4.194537       0.094455
H        2.287187       3.277847       1.509363
H        0.445129       3.578862      -1.694190
H        1.035497       2.075242      -2.415036
H        2.125480       3.463516      -2.227389
H        3.030783       0.933258       0.454212
H        2.911690       0.884168      -1.346575
H        3.843981       2.144614      -0.542128
64

Ti       0.159977      -0.162337      -0.165618
Si      -0.615822       2.195252       1.210991
N        0.694543       1.559777       0.216960
C        1.437915      -2.334224       0.032950
C        2.017287      -1.722181      -0.997775
C       -0.661880      -0.194610      -2.081269
C        0.183756      -0.299512      -3.360374
C       -1.302395       0.422356       1.343611
C       -1.820232       3.315754       0.239403
C       -0.207687       2.861812       2.952025
C       -0.593561      -0.641736       1.970137
C       -2.208471      -0.166396       0.420780
C       -2.155647      -1.570997       0.569702
C       -2.909321      -2.617741      -0.056539
C       -1.167283      -1.869194       1.548646
C       -0.957429      -3.217136       1.990809
C       -0.038034      -3.517731       3.006756
C       -1.711959      -4.257131       1.391041
C       -1.493600      -5.561373       1.854507
C       -2.678833      -3.957221       0.344233
C       -3.421029      -4.959890      -0.294945
C       -4.346543      -4.666636      -1.270316
C       -4.572169      -3.346627      -1.650596
C       -3.859119      -2.338224      -1.048871
C       -0.584745      -5.836309       2.850947
C        0.148990      -4.808671       3.435854
C        1.829562       2.339882      -0.255866
C        3.087138       1.456663      -0.152422
C        1.577625       2.759993      -1.708635
C        2.038644       3.594178       0.595638
H        1.771549      -1.995129      -2.018841
H        2.918596      -1.129211      -0.852800
H        1.834438      -2.236946       1.045691
H        0.684866      -3.104888      -0.127606
H       -1.277391       0.710165      -2.186076
H       -1.358543      -1.053469      -2.088291
H        0.487554      -1.328651      -3.559176
H       -0.410223       0.015360      -4.222574
H        1.070129       0.336523      -3.341241
H        0.643321       2.357675       3.399581
H        0.009314       3.923998       2.932845
H       -1.058904       2.716748       3.610187
H       -2.765685       3.401288       0.764743
H       -1.427256       4.321033       0.124925
H       -2.018653       2.918257      -0.754608
H       -2.942217       0.389661      -0.147394
H       -3.278075      -5.995381      -0.030252
H       -4.902005      -5.465529      -1.740169
H       -5.302466      -3.121288      -2.413316
H       -4.029373      -1.312707      -1.340314
H       -2.048082      -6.386059       1.435108
H       -0.447250      -6.854310       3.185198
H        0.855925      -5.029580       4.221462
H        0.521787      -2.716702       3.466848
H        0.080134      -0.506014       2.809198
H        1.155441       4.224828       0.566706
H        2.878265       4.167477       0.209215
H        2.246612       3.322758       1.626348
H        0.706237       3.409318      -1.752455
H        1.394621       1.881560      -2.325630
H        2.436114       3.300413      -2.099691
H        3.043878       0.881132       0.777779
H        3.167186       0.796023      -1.017030
H        3.979609       2.077691      -0.123918
64

Ti       0.179783      -0.174811      -0.137926
Si      -0.559595       2.169281       1.271438
N        0.753639       1.524647       0.287144
C        1.495590      -2.303885       0.056724
C        2.003053      -1.710687      -1.029029
C       -0.614892      -0.201145      -2.059514
C        0.192603      -0.228585      -3.365433
C       -1.275614       0.405598       1.378752
C       -1.732359       3.311019       0.284757
C       -0.172652       2.823202       3.021639
C       -0.578637      -0.680696       1.981319
C       -2.187274      -0.152328       0.442385
C       -2.150357      -1.560461       0.558965
C       -2.919029      -2.583440      -0.088162
C       -1.164904      -1.891900       1.530383
C       -0.968775      -3.252483       1.939744
C       -0.047958      -3.587243       2.943790
C       -1.737913      -4.269320       1.318996
C       -1.531268      -5.586664       1.749691
C       -2.706137      -3.934096       0.284116
C       -3.466779      -4.912417      -0.370750
C       -4.391725      -4.585928      -1.336227
C       -4.597802      -3.255667      -1.690345
C       -3.867389      -2.270214      -1.071628
C       -0.621043      -5.895211       2.735069
C        0.126564      -4.890056       3.341092
C        1.941390       2.264214      -0.115252
C        3.169684       1.388280       0.200578
C        1.855373       2.568648      -1.615396
C        2.068498       3.583891       0.649231
H        1.710136      -2.026922      -2.025249
H        2.897039      -1.092699      -0.956897
H        1.947849      -2.164740       1.041915
H        0.758700      -3.100469      -0.039133
H       -1.246618       0.699838      -2.114903
H       -1.297964      -1.070093      -2.077863
H        0.520437      -1.238589      -3.616068
H       -0.436015       0.103941      -4.195781
H        1.059937       0.431685      -3.345099
H        0.667760       2.311042       3.479968
H        0.051726       3.884011       3.009730
H       -1.034557       2.681708       3.666669
H       -2.689289       3.398999       0.788445
H       -1.328604       4.314007       0.190280
H       -1.910022       2.926536      -0.718657
H       -2.914956       0.423913      -0.113358
H       -3.339413      -5.954933      -0.126643
H       -4.961736      -5.366874      -1.818585
H       -5.326808      -3.004220      -2.446131
H       -4.022915      -1.236681      -1.342897
H       -2.095714      -6.395094       1.312558
H       -0.492921      -6.922583       3.043569
H        0.834569      -5.137439       4.117760
H        0.523212      -2.803485       3.419074
H        0.093820      -0.572549       2.825286
H        1.190342       4.201615       0.487946
H        2.939561       4.131758       0.296956
H        2.182052       3.398011       1.712775
H        0.987155       3.196710      -1.806465
H        1.756716       1.643201      -2.181731
H        2.747458       3.095240      -1.945659
H        3.004455       0.870195       1.149537
H        3.355112       0.670956      -0.599677
H        4.056716       2.008819       0.303595
64

Ti       0.172323      -0.177166      -0.090048
Si      -0.515291       2.161832       1.339977
N        0.796029       1.496064       0.368217
C        1.517664      -2.261276       0.100419
C        1.958153      -1.701182      -1.037156
C       -0.570300      -0.216237      -2.025561
C        0.195299      -0.174092      -3.354074
C       -1.272925       0.412829       1.429473
C       -1.652120       3.326338       0.336883
C       -0.141145       2.808472       3.095065
C       -0.593707      -0.695750       2.012591
C       -2.185402      -0.113029       0.475641
C       -2.169353      -1.524220       0.562997
C       -2.952190      -2.521947      -0.106397
C       -1.193396      -1.889493       1.531859
C       -1.016676      -3.261535       1.911561
C       -0.099979      -3.630706       2.907447
C       -1.799651      -4.253722       1.268503
C       -1.610606      -5.583002       1.669693
C       -2.762693      -3.882786       0.240995
C       -3.540846      -4.835399      -0.430775
C       -4.458685      -4.475282      -1.391220
C       -4.639514      -3.135785      -1.722848
C       -3.892513      -2.174620      -1.085921
C       -0.705082      -5.925386       2.648346
C        0.056294      -4.944209       3.276179
C        2.028114       2.188130       0.018973
C        3.204684       1.322334       0.512597
C        2.080253       2.377788      -1.501369
C        2.114139       3.562347       0.687002
H        1.636830      -2.073793      -2.004664
H        2.836724      -1.056271      -1.034477
H        2.016141      -2.070070       1.055272
H        0.806004      -3.085468       0.070568
H       -1.198939       0.692590      -2.026963
H       -1.256023      -1.081679      -2.056975
H        0.542009      -1.164474      -3.652251
H       -0.466586       0.172847      -4.152130
H        1.045100       0.507105      -3.332667
H        0.684571       2.282889       3.564795
H        0.100299       3.865588       3.085048
H       -1.013643       2.681861       3.728868
H       -2.618660       3.423071       0.820290
H       -1.233811       4.324683       0.258918
H       -1.812543       2.952631      -0.673857
H       -2.903201       0.484004      -0.071465
H       -3.433356      -5.884064      -0.204323
H       -5.042579      -5.237161      -1.887121
H       -5.361973      -2.858085      -2.475734
H       -4.028997      -1.133848      -1.339909
H       -2.184691      -6.374048       1.214034
H       -0.590884      -6.961050       2.933809
H        0.760912      -5.218299       4.046873
H        0.482679      -2.865343       3.398248
H        0.073302      -0.615743       2.863835
H        1.257338       4.170485       0.413156
H        3.015448       4.075381       0.359365
H        2.147955       3.459703       1.766936
H        1.231203       2.982852      -1.816658
H        2.038871       1.411901      -2.004544
H        2.997688       2.886881      -1.786902
H        2.943792       0.883556       1.478699
H        3.446537       0.536391      -0.203117
H        4.092227       1.935887       0.646767
64

Ti       0.173126      -0.200612      -0.033478
Si      -0.441852       2.143257       1.408687
N        0.857467       1.443629       0.446576
C        1.531912      -2.248175       0.168442
C        1.903318      -1.741715      -1.020180
C       -0.510823      -0.253916      -1.986664
C        0.225376      -0.173680      -3.328206
C       -1.255280       0.417641       1.487737
C       -1.538260       3.337524       0.394736
C       -0.065401       2.781617       3.165741
C       -0.604677      -0.715445       2.056947
C       -2.167282      -0.072124       0.514417
C       -2.183198      -1.485840       0.577382
C       -2.983918      -2.454174      -0.113878
C       -1.224316      -1.888653       1.548541
C       -1.080048      -3.270925       1.904801
C       -0.177132      -3.677343       2.898988
C       -1.879917      -4.234315       1.239058
C       -1.722378      -5.574279       1.617845
C       -2.827978      -3.824546       0.212264
C       -3.624260      -4.747701      -0.478861
C       -4.527156      -4.350792      -1.439116
C       -4.674183      -3.002510      -1.750525
C       -3.908903      -2.069374      -1.093838
C       -0.831447      -5.953237       2.596566
C       -0.052470      -5.000221       3.245801
C        2.123262       2.086874       0.125732
C        3.248235       1.222162       0.729238
C        2.259141       2.191461      -1.397396
C        2.212202       3.494063       0.720689
H        1.553347      -2.180189      -1.949219
H        2.764822      -1.078097      -1.095875
H        2.075320      -1.996702       1.085099
H        0.846398      -3.093334       0.214708
H       -1.115422       0.674823      -1.941240
H       -1.219648      -1.099366      -2.032303
H        0.570677      -1.154146      -3.658888
H       -0.453720       0.192234      -4.103204
H        1.072792       0.509057      -3.304404
H        0.740811       2.233543       3.643648
H        0.205878       3.831505       3.155394
H       -0.946555       2.681564       3.792150
H       -2.510279       3.452021       0.863388
H       -1.098167       4.327296       0.329656
H       -1.690579       2.974257      -0.621368
H       -2.868607       0.549404      -0.027616
H       -3.543054      -5.801977      -0.268324